# vtk DataFile Version 3.0
Triangulation generated with deal.II
ASCII
DATASET UNSTRUCTURED_GRID
POINTS 561 double
0 -0.5 0
0.8 -0.1 0
0 0.5 0
0.8 0.1 0
-0.8 -0.1 0
-0.8 0.1 0
0.4 -0.3 0
0 0 0
0.8 0 0
0.4 0.3 0
-0.4 -0.3 0
-0.8 0 0
-0.4 0.3 0
0.4 0 0
-0.4 0 0
0.2 -0.4 0
0.6 -0.2 0
0 -0.25 0
0 0.25 0
0.8 -0.05 0
0.8 0.05 0
0.2 0.4 0
0.6 0.2 0
-0.6 -0.2 0
-0.2 -0.4 0
-0.8 -0.05 0
-0.8 0.05 0
-0.6 0.2 0
-0.2 0.4 0
0.4 -0.15 0
0.4 0.15 0
0.2 0 0
0.6 0 0
-0.4 -0.15 0
-0.4 0.15 0
-0.6 0 0
-0.2 0 0
0.2 -0.2 0
0.6 -0.1 0
0.2 0.2 0
0.6 0.1 0
-0.6 -0.1 0
-0.2 -0.2 0
-0.6 0.1 0
-0.2 0.2 0
0.1 -0.45 0
0.3 -0.35 0
0.5 -0.25 0
0.7 -0.15 0
0 -0.375 0
0 -0.125 0
0 0.125 0
0 0.375 0
0.8 -0.075 0
0.8 -0.025 0
0.8 0.025 0
0.8 0.075 0
0.1 0.45 0
0.3 0.35 0
0.5 0.25 0
0.7 0.15 0
-0.7 -0.15 0
-0.5 -0.25 0
-0.3 -0.35 0
-0.1 -0.45 0
-0.8 -0.075 0
-0.8 -0.025 0
-0.8 0.025 0
-0.8 0.075 0
-0.7 0.15 0
-0.5 0.25 0
-0.3 0.35 0
-0.1 0.45 0
0.4 -0.225 0
0.4 -0.075 0
0.4 0.075 0
0.4 0.225 0
0.1 0 0
0.3 0 0
0.5 0 0
0.7 0 0
-0.4 -0.225 0
-0.4 -0.075 0
-0.4 0.075 0
-0.4 0.225 0
-0.7 0 0
-0.5 0 0
-0.3 0 0
-0.1 0 0
0.2 -0.3 0
0.2 -0.1 0
0.1 -0.225 0
0.3 -0.175 0
0.6 -0.15 0
0.6 -0.05 0
0.5 -0.125 0
0.7 -0.075 0
0.2 0.1 0
0.2 0.3 0
0.1 0.225 0
0.3 0.175 0
0.6 0.05 0
0.6 0.15 0
0.5 0.125 0
0.7 0.075 0
-0.6 -0.15 0
-0.6 -0.05 0
-0.7 -0.075 0
-0.5 -0.125 0
-0.2 -0.3 0
-0.2 -0.1 0
-0.3 -0.175 0
-0.1 -0.225 0
-0.6 0.05 0
-0.6 0.15 0
-0.7 0.075 0
-0.5 0.125 0
-0.2 0.1 0
-0.2 0.3 0
-0.3 0.175 0
-0.1 0.225 0
0.1 -0.3375 0
0.3 -0.2625 0
0.1 -0.1125 0
0.3 -0.0875 0
0.5 -0.1875 0
0.7 -0.1125 0
0.5 -0.0625 0
0.7 -0.0375 0
0.1 0.1125 0
0.3 0.0875 0
0.1 0.3375 0
0.3 0.2625 0
0.5 0.0625 0
0.7 0.0375 0
0.5 0.1875 0
0.7 0.1125 0
-0.7 -0.1125 0
-0.5 -0.1875 0
-0.7 -0.0375 0
-0.5 -0.0625 0
-0.3 -0.2625 0
-0.1 -0.3375 0
-0.3 -0.0875 0
-0.1 -0.1125 0
-0.7 0.0375 0
-0.5 0.0625 0
-0.7 0.1125 0
-0.5 0.1875 0
-0.3 0.0875 0
-0.1 0.1125 0
-0.3 0.2625 0
-0.1 0.3375 0
0.05 -0.475 0
0.15 -0.425 0
0.25 -0.375 0
0.35 -0.325 0
0.45 -0.275 0
0.55 -0.225 0
0.65 -0.175 0
0.75 -0.125 0
0 -0.4375 0
0 -0.3125 0
0 -0.1875 0
0 -0.0625 0
0 0.0625 0
0 0.1875 0
0 0.3125 0
0 0.4375 0
0.8 -0.0875 0
0.8 -0.0625 0
0.8 -0.0375 0
0.8 -0.0125 0
0.8 0.0125 0
0.8 0.0375 0
0.8 0.0625 0
0.8 0.0875 0
0.05 0.475 0
0.15 0.425 0
0.25 0.375 0
0.35 0.325 0
0.45 0.275 0
0.55 0.225 0
0.65 0.175 0
0.75 0.125 0
-0.75 -0.125 0
-0.65 -0.175 0
-0.55 -0.225 0
-0.45 -0.275 0
-0.35 -0.325 0
-0.25 -0.375 0
-0.15 -0.425 0
-0.05 -0.475 0
-0.8 -0.0875 0
-0.8 -0.0625 0
-0.8 -0.0375 0
-0.8 -0.0125 0
-0.8 0.0125 0
-0.8 0.0375 0
-0.8 0.0625 0
-0.8 0.0875 0
-0.75 0.125 0
-0.65 0.175 0
-0.55 0.225 0
-0.45 0.275 0
-0.35 0.325 0
-0.25 0.375 0
-0.15 0.425 0
-0.05 0.475 0
0.4 -0.2625 0
0.4 -0.1875 0
0.4 -0.1125 0
0.4 -0.0375 0
0.4 0.0375 0
0.4 0.1125 0
0.4 0.1875 0
0.4 0.2625 0
0.05 0 0
0.15 0 0
0.25 0 0
0.35 0 0
0.45 0 0
0.55 0 0
0.65 0 0
0.75 0 0
-0.4 -0.2625 0
-0.4 -0.1875 0
-0.4 -0.1125 0
-0.4 -0.0375 0
-0.4 0.0375 0
-0.4 0.1125 0
-0.4 0.1875 0
-0.4 0.2625 0
-0.75 0 0
-0.65 0 0
-0.55 0 0
-0.45 0 0
-0.35 0 0
-0.25 0 0
-0.15 0 0
-0.05 0 0
0.2 -0.35 0
0.2 -0.25 0
0.2 -0.15 0
0.2 -0.05 0
0.05 -0.2375 0
0.15 -0.2125 0
0.25 -0.1875 0
0.35 -0.1625 0
0.6 -0.175 0
0.6 -0.125 0
0.6 -0.075 0
0.6 -0.025 0
0.45 -0.1375 0
0.55 -0.1125 0
0.65 -0.0875 0
0.75 -0.0625 0
0.2 0.05 0
0.2 0.15 0
0.2 0.25 0
0.2 0.35 0
0.05 0.2375 0
0.15 0.2125 0
0.25 0.1875 0
0.35 0.1625 0
0.6 0.025 0
0.6 0.075 0
0.6 0.125 0
0.6 0.175 0
0.45 0.1375 0
0.55 0.1125 0
0.65 0.0875 0
0.75 0.0625 0
-0.6 -0.175 0
-0.6 -0.125 0
-0.6 -0.075 0
-0.6 -0.025 0
-0.75 -0.0625 0
-0.65 -0.0875 0
-0.55 -0.1125 0
-0.45 -0.1375 0
-0.2 -0.35 0
-0.2 -0.25 0
-0.2 -0.15 0
-0.2 -0.05 0
-0.35 -0.1625 0
-0.25 -0.1875 0
-0.15 -0.2125 0
-0.05 -0.2375 0
-0.6 0.025 0
-0.6 0.075 0
-0.6 0.125 0
-0.6 0.175 0
-0.75 0.0625 0
-0.65 0.0875 0
-0.55 0.1125 0
-0.45 0.1375 0
-0.2 0.05 0
-0.2 0.15 0
-0.2 0.25 0
-0.2 0.35 0
-0.35 0.1625 0
-0.25 0.1875 0
-0.15 0.2125 0
-0.05 0.2375 0
0.1 -0.39375 0
0.1 -0.28125 0
0.05 -0.35625 0
0.15 -0.31875 0
0.3 -0.30625 0
0.3 -0.21875 0
0.25 -0.28125 0
0.35 -0.24375 0
0.1 -0.16875 0
0.1 -0.05625 0
0.05 -0.11875 0
0.15 -0.10625 0
0.3 -0.13125 0
0.3 -0.04375 0
0.25 -0.09375 0
0.35 -0.08125 0
0.5 -0.21875 0
0.5 -0.15625 0
0.45 -0.20625 0
0.55 -0.16875 0
0.7 -0.13125 0
0.7 -0.09375 0
0.65 -0.13125 0
0.75 -0.09375 0
0.5 -0.09375 0
0.5 -0.03125 0
0.45 -0.06875 0
0.55 -0.05625 0
0.7 -0.05625 0
0.7 -0.01875 0
0.65 -0.04375 0
0.75 -0.03125 0
0.1 0.05625 0
0.1 0.16875 0
0.05 0.11875 0
0.15 0.10625 0
0.3 0.04375 0
0.3 0.13125 0
0.25 0.09375 0
0.35 0.08125 0
0.1 0.28125 0
0.1 0.39375 0
0.05 0.35625 0
0.15 0.31875 0
0.3 0.21875 0
0.3 0.30625 0
0.25 0.28125 0
0.35 0.24375 0
0.5 0.03125 0
0.5 0.09375 0
0.45 0.06875 0
0.55 0.05625 0
0.7 0.01875 0
0.7 0.05625 0
0.65 0.04375 0
0.75 0.03125 0
0.5 0.15625 0
0.5 0.21875 0
0.45 0.20625 0
0.55 0.16875 0
0.7 0.09375 0
0.7 0.13125 0
0.65 0.13125 0
0.75 0.09375 0
-0.7 -0.13125 0
-0.7 -0.09375 0
-0.75 -0.09375 0
-0.65 -0.13125 0
-0.5 -0.21875 0
-0.5 -0.15625 0
-0.55 -0.16875 0
-0.45 -0.20625 0
-0.7 -0.05625 0
-0.7 -0.01875 0
-0.75 -0.03125 0
-0.65 -0.04375 0
-0.5 -0.09375 0
-0.5 -0.03125 0
-0.55 -0.05625 0
-0.45 -0.06875 0
-0.3 -0.30625 0
-0.3 -0.21875 0
-0.35 -0.24375 0
-0.25 -0.28125 0
-0.1 -0.39375 0
-0.1 -0.28125 0
-0.15 -0.31875 0
-0.05 -0.35625 0
-0.3 -0.13125 0
-0.3 -0.04375 0
-0.35 -0.08125 0
-0.25 -0.09375 0
-0.1 -0.16875 0
-0.1 -0.05625 0
-0.15 -0.10625 0
-0.05 -0.11875 0
-0.7 0.01875 0
-0.7 0.05625 0
-0.75 0.03125 0
-0.65 0.04375 0
-0.5 0.03125 0
-0.5 0.09375 0
-0.55 0.05625 0
-0.45 0.06875 0
-0.7 0.09375 0
-0.7 0.13125 0
-0.75 0.09375 0
-0.65 0.13125 0
-0.5 0.15625 0
-0.5 0.21875 0
-0.55 0.16875 0
-0.45 0.20625 0
-0.3 0.04375 0
-0.3 0.13125 0
-0.35 0.08125 0
-0.25 0.09375 0
-0.1 0.05625 0
-0.1 0.16875 0
-0.15 0.10625 0
-0.05 0.11875 0
-0.3 0.21875 0
-0.3 0.30625 0
-0.35 0.24375 0
-0.25 0.28125 0
-0.1 0.28125 0
-0.1 0.39375 0
-0.15 0.31875 0
-0.05 0.35625 0
0.05 -0.415625 0
0.15 -0.371875 0
0.05 -0.296875 0
0.15 -0.265625 0
0.25 -0.328125 0
0.35 -0.284375 0
0.25 -0.234375 0
0.35 -0.203125 0
0.05 -0.178125 0
0.15 -0.159375 0
0.05 -0.059375 0
0.15 -0.053125 0
0.25 -0.140625 0
0.35 -0.121875 0
0.25 -0.046875 0
0.35 -0.040625 0
0.45 -0.240625 0
0.55 -0.196875 0
0.45 -0.171875 0
0.55 -0.140625 0
0.65 -0.153125 0
0.75 -0.109375 0
0.65 -0.109375 0
0.75 -0.078125 0
0.45 -0.103125 0
0.55 -0.084375 0
0.45 -0.034375 0
0.55 -0.028125 0
0.65 -0.065625 0
0.75 -0.046875 0
0.65 -0.021875 0
0.75 -0.015625 0
0.05 0.059375 0
0.15 0.053125 0
0.05 0.178125 0
0.15 0.159375 0
0.25 0.046875 0
0.35 0.040625 0
0.25 0.140625 0
0.35 0.121875 0
0.05 0.296875 0
0.15 0.265625 0
0.05 0.415625 0
0.15 0.371875 0
0.25 0.234375 0
0.35 0.203125 0
0.25 0.328125 0
0.35 0.284375 0
0.45 0.034375 0
0.55 0.028125 0
0.45 0.103125 0
0.55 0.084375 0
0.65 0.021875 0
0.75 0.015625 0
0.65 0.065625 0
0.75 0.046875 0
0.45 0.171875 0
0.55 0.140625 0
0.45 0.240625 0
0.55 0.196875 0
0.65 0.109375 0
0.75 0.078125 0
0.65 0.153125 0
0.75 0.109375 0
-0.75 -0.109375 0
-0.65 -0.153125 0
-0.75 -0.078125 0
-0.65 -0.109375 0
-0.55 -0.196875 0
-0.45 -0.240625 0
-0.55 -0.140625 0
-0.45 -0.171875 0
-0.75 -0.046875 0
-0.65 -0.065625 0
-0.75 -0.015625 0
-0.65 -0.021875 0
-0.55 -0.084375 0
-0.45 -0.103125 0
-0.55 -0.028125 0
-0.45 -0.034375 0
-0.35 -0.284375 0
-0.25 -0.328125 0
-0.35 -0.203125 0
-0.25 -0.234375 0
-0.15 -0.371875 0
-0.05 -0.415625 0
-0.15 -0.265625 0
-0.05 -0.296875 0
-0.35 -0.121875 0
-0.25 -0.140625 0
-0.35 -0.040625 0
-0.25 -0.046875 0
-0.15 -0.159375 0
-0.05 -0.178125 0
-0.15 -0.053125 0
-0.05 -0.059375 0
-0.75 0.015625 0
-0.65 0.021875 0
-0.75 0.046875 0
-0.65 0.065625 0
-0.55 0.028125 0
-0.45 0.034375 0
-0.55 0.084375 0
-0.45 0.103125 0
-0.75 0.078125 0
-0.65 0.109375 0
-0.75 0.109375 0
-0.65 0.153125 0
-0.55 0.140625 0
-0.45 0.171875 0
-0.55 0.196875 0
-0.45 0.240625 0
-0.35 0.040625 0
-0.25 0.046875 0
-0.35 0.121875 0
-0.25 0.140625 0
-0.15 0.053125 0
-0.05 0.059375 0
-0.15 0.159375 0
-0.05 0.178125 0
-0.35 0.203125 0
-0.25 0.234375 0
-0.35 0.284375 0
-0.25 0.328125 0
-0.15 0.265625 0
-0.05 0.296875 0
-0.15 0.371875 0
-0.05 0.415625 0

CELLS 512 2560
4 0 153 433 161
4 153 45 305 433
4 161 433 307 49
4 433 305 121 307
4 45 154 434 305
4 154 15 241 434
4 305 434 308 121
4 434 241 89 308
4 49 307 435 162
4 307 121 306 435
4 162 435 245 17
4 435 306 91 245
4 121 308 436 306
4 308 89 242 436
4 306 436 246 91
4 436 242 37 246
4 15 155 437 241
4 155 46 309 437
4 241 437 311 89
4 437 309 122 311
4 46 156 438 309
4 156 6 209 438
4 309 438 312 122
4 438 209 73 312
4 89 311 439 242
4 311 122 310 439
4 242 439 247 37
4 439 310 92 247
4 122 312 440 310
4 312 73 210 440
4 310 440 248 92
4 440 210 29 248
4 17 245 441 163
4 245 91 313 441
4 163 441 315 50
4 441 313 123 315
4 91 246 442 313
4 246 37 243 442
4 313 442 316 123
4 442 243 90 316
4 50 315 443 164
4 315 123 314 443
4 164 443 217 7
4 443 314 77 217
4 123 316 444 314
4 316 90 244 444
4 314 444 218 77
4 444 244 31 218
4 37 247 445 243
4 247 92 317 445
4 243 445 319 90
4 445 317 124 319
4 92 248 446 317
4 248 29 211 446
4 317 446 320 124
4 446 211 74 320
4 90 319 447 244
4 319 124 318 447
4 244 447 219 31
4 447 318 78 219
4 124 320 448 318
4 320 74 212 448
4 318 448 220 78
4 448 212 13 220
4 6 157 449 209
4 157 47 321 449
4 209 449 323 73
4 449 321 125 323
4 47 158 450 321
4 158 16 249 450
4 321 450 324 125
4 450 249 93 324
4 73 323 451 210
4 323 125 322 451
4 210 451 253 29
4 451 322 95 253
4 125 324 452 322
4 324 93 250 452
4 322 452 254 95
4 452 250 38 254
4 16 159 453 249
4 159 48 325 453
4 249 453 327 93
4 453 325 126 327
4 48 160 454 325
4 160 1 169 454
4 325 454 328 126
4 454 169 53 328
4 93 327 455 250
4 327 126 326 455
4 250 455 255 38
4 455 326 96 255
4 126 328 456 326
4 328 53 170 456
4 326 456 256 96
4 456 170 19 256
4 29 253 457 211
4 253 95 329 457
4 211 457 331 74
4 457 329 127 331
4 95 254 458 329
4 254 38 251 458
4 329 458 332 127
4 458 251 94 332
4 74 331 459 212
4 331 127 330 459
4 212 459 221 13
4 459 330 79 221
4 127 332 460 330
4 332 94 252 460
4 330 460 222 79
4 460 252 32 222
4 38 255 461 251
4 255 96 333 461
4 251 461 335 94
4 461 333 128 335
4 96 256 462 333
4 256 19 171 462
4 333 462 336 128
4 462 171 54 336
4 94 335 463 252
4 335 128 334 463
4 252 463 223 32
4 463 334 80 223
4 128 336 464 334
4 336 54 172 464
4 334 464 224 80
4 464 172 8 224
4 7 217 465 165
4 217 77 337 465
4 165 465 339 51
4 465 337 129 339
4 77 218 466 337
4 218 31 257 466
4 337 466 340 129
4 466 257 97 340
4 51 339 467 166
4 339 129 338 467
4 166 467 261 18
4 467 338 99 261
4 129 340 468 338
4 340 97 258 468
4 338 468 262 99
4 468 258 39 262
4 31 219 469 257
4 219 78 341 469
4 257 469 343 97
4 469 341 130 343
4 78 220 470 341
4 220 13 213 470
4 341 470 344 130
4 470 213 75 344
4 97 343 471 258
4 343 130 342 471
4 258 471 263 39
4 471 342 100 263
4 130 344 472 342
4 344 75 214 472
4 342 472 264 100
4 472 214 30 264
4 18 261 473 167
4 261 99 345 473
4 167 473 347 52
4 473 345 131 347
4 99 262 474 345
4 262 39 259 474
4 345 474 348 131
4 474 259 98 348
4 52 347 475 168
4 347 131 346 475
4 168 475 177 2
4 475 346 57 177
4 131 348 476 346
4 348 98 260 476
4 346 476 178 57
4 476 260 21 178
4 39 263 477 259
4 263 100 349 477
4 259 477 351 98
4 477 349 132 351
4 100 264 478 349
4 264 30 215 478
4 349 478 352 132
4 478 215 76 352
4 98 351 479 260
4 351 132 350 479
4 260 479 179 21
4 479 350 58 179
4 132 352 480 350
4 352 76 216 480
4 350 480 180 58
4 480 216 9 180
4 13 221 481 213
4 221 79 353 481
4 213 481 355 75
4 481 353 133 355
4 79 222 482 353
4 222 32 265 482
4 353 482 356 133
4 482 265 101 356
4 75 355 483 214
4 355 133 354 483
4 214 483 269 30
4 483 354 103 269
4 133 356 484 354
4 356 101 266 484
4 354 484 270 103
4 484 266 40 270
4 32 223 485 265
4 223 80 357 485
4 265 485 359 101
4 485 357 134 359
4 80 224 486 357
4 224 8 173 486
4 357 486 360 134
4 486 173 55 360
4 101 359 487 266
4 359 134 358 487
4 266 487 271 40
4 487 358 104 271
4 134 360 488 358
4 360 55 174 488
4 358 488 272 104
4 488 174 20 272
4 30 269 489 215
4 269 103 361 489
4 215 489 363 76
4 489 361 135 363
4 103 270 490 361
4 270 40 267 490
4 361 490 364 135
4 490 267 102 364
4 76 363 491 216
4 363 135 362 491
4 216 491 181 9
4 491 362 59 181
4 135 364 492 362
4 364 102 268 492
4 362 492 182 59
4 492 268 22 182
4 40 271 493 267
4 271 104 365 493
4 267 493 367 102
4 493 365 136 367
4 104 272 494 365
4 272 20 175 494
4 365 494 368 136
4 494 175 56 368
4 102 367 495 268
4 367 136 366 495
4 268 495 183 22
4 495 366 60 183
4 136 368 496 366
4 368 56 176 496
4 366 496 184 60
4 496 176 3 184
4 4 185 497 193
4 185 61 369 497
4 193 497 371 65
4 497 369 137 371
4 61 186 498 369
4 186 23 273 498
4 369 498 372 137
4 498 273 105 372
4 65 371 499 194
4 371 137 370 499
4 194 499 277 25
4 499 370 107 277
4 137 372 500 370
4 372 105 274 500
4 370 500 278 107
4 500 274 41 278
4 23 187 501 273
4 187 62 373 501
4 273 501 375 105
4 501 373 138 375
4 62 188 502 373
4 188 10 225 502
4 373 502 376 138
4 502 225 81 376
4 105 375 503 274
4 375 138 374 503
4 274 503 279 41
4 503 374 108 279
4 138 376 504 374
4 376 81 226 504
4 374 504 280 108
4 504 226 33 280
4 25 277 505 195
4 277 107 377 505
4 195 505 379 66
4 505 377 139 379
4 107 278 506 377
4 278 41 275 506
4 377 506 380 139
4 506 275 106 380
4 66 379 507 196
4 379 139 378 507
4 196 507 233 11
4 507 378 85 233
4 139 380 508 378
4 380 106 276 508
4 378 508 234 85
4 508 276 35 234
4 41 279 509 275
4 279 108 381 509
4 275 509 383 106
4 509 381 140 383
4 108 280 510 381
4 280 33 227 510
4 381 510 384 140
4 510 227 82 384
4 106 383 511 276
4 383 140 382 511
4 276 511 235 35
4 511 382 86 235
4 140 384 512 382
4 384 82 228 512
4 382 512 236 86
4 512 228 14 236
4 10 189 513 225
4 189 63 385 513
4 225 513 387 81
4 513 385 141 387
4 63 190 514 385
4 190 24 281 514
4 385 514 388 141
4 514 281 109 388
4 81 387 515 226
4 387 141 386 515
4 226 515 285 33
4 515 386 111 285
4 141 388 516 386
4 388 109 282 516
4 386 516 286 111
4 516 282 42 286
4 24 191 517 281
4 191 64 389 517
4 281 517 391 109
4 517 389 142 391
4 64 192 518 389
4 192 0 161 518
4 389 518 392 142
4 518 161 49 392
4 109 391 519 282
4 391 142 390 519
4 282 519 287 42
4 519 390 112 287
4 142 392 520 390
4 392 49 162 520
4 390 520 288 112
4 520 162 17 288
4 33 285 521 227
4 285 111 393 521
4 227 521 395 82
4 521 393 143 395
4 111 286 522 393
4 286 42 283 522
4 393 522 396 143
4 522 283 110 396
4 82 395 523 228
4 395 143 394 523
4 228 523 237 14
4 523 394 87 237
4 143 396 524 394
4 396 110 284 524
4 394 524 238 87
4 524 284 36 238
4 42 287 525 283
4 287 112 397 525
4 283 525 399 110
4 525 397 144 399
4 112 288 526 397
4 288 17 163 526
4 397 526 400 144
4 526 163 50 400
4 110 399 527 284
4 399 144 398 527
4 284 527 239 36
4 527 398 88 239
4 144 400 528 398
4 400 50 164 528
4 398 528 240 88
4 528 164 7 240
4 11 233 529 197
4 233 85 401 529
4 197 529 403 67
4 529 401 145 403
4 85 234 530 401
4 234 35 289 530
4 401 530 404 145
4 530 289 113 404
4 67 403 531 198
4 403 145 402 531
4 198 531 293 26
4 531 402 115 293
4 145 404 532 402
4 404 113 290 532
4 402 532 294 115
4 532 290 43 294
4 35 235 533 289
4 235 86 405 533
4 289 533 407 113
4 533 405 146 407
4 86 236 534 405
4 236 14 229 534
4 405 534 408 146
4 534 229 83 408
4 113 407 535 290
4 407 146 406 535
4 290 535 295 43
4 535 406 116 295
4 146 408 536 406
4 408 83 230 536
4 406 536 296 116
4 536 230 34 296
4 26 293 537 199
4 293 115 409 537
4 199 537 411 68
4 537 409 147 411
4 115 294 538 409
4 294 43 291 538
4 409 538 412 147
4 538 291 114 412
4 68 411 539 200
4 411 147 410 539
4 200 539 201 5
4 539 410 69 201
4 147 412 540 410
4 412 114 292 540
4 410 540 202 69
4 540 292 27 202
4 43 295 541 291
4 295 116 413 541
4 291 541 415 114
4 541 413 148 415
4 116 296 542 413
4 296 34 231 542
4 413 542 416 148
4 542 231 84 416
4 114 415 543 292
4 415 148 414 543
4 292 543 203 27
4 543 414 70 203
4 148 416 544 414
4 416 84 232 544
4 414 544 204 70
4 544 232 12 204
4 14 237 545 229
4 237 87 417 545
4 229 545 419 83
4 545 417 149 419
4 87 238 546 417
4 238 36 297 546
4 417 546 420 149
4 546 297 117 420
4 83 419 547 230
4 419 149 418 547
4 230 547 301 34
4 547 418 119 301
4 149 420 548 418
4 420 117 298 548
4 418 548 302 119
4 548 298 44 302
4 36 239 549 297
4 239 88 421 549
4 297 549 423 117
4 549 421 150 423
4 88 240 550 421
4 240 7 165 550
4 421 550 424 150
4 550 165 51 424
4 117 423 551 298
4 423 150 422 551
4 298 551 303 44
4 551 422 120 303
4 150 424 552 422
4 424 51 166 552
4 422 552 304 120
4 552 166 18 304
4 34 301 553 231
4 301 119 425 553
4 231 553 427 84
4 553 425 151 427
4 119 302 554 425
4 302 44 299 554
4 425 554 428 151
4 554 299 118 428
4 84 427 555 232
4 427 151 426 555
4 232 555 205 12
4 555 426 71 205
4 151 428 556 426
4 428 118 300 556
4 426 556 206 71
4 556 300 28 206
4 44 303 557 299
4 303 120 429 557
4 299 557 431 118
4 557 429 152 431
4 120 304 558 429
4 304 18 167 558
4 429 558 432 152
4 558 167 52 432
4 118 431 559 300
4 431 152 430 559
4 300 559 207 28
4 559 430 72 207
4 152 432 560 430
4 432 52 168 560
4 430 560 208 72
4 560 168 2 208

CELL_TYPES 512
9 9 9 9 9 9 9 9 9 9 9 9 9 9 9 9 9 9 9 9 9 9 9 9 9 9 9 9 9 9 9 9 9 9 9 9 9 9 9 9 9 9 9 9 9 9 9 9 9 9 9 9 9 9 9 9 9 9 9 9 9 9 9 9 9 9 9 9 9 9 9 9 9 9 9 9 9 9 9 9 9 9 9 9 9 9 9 9 9 9 9 9 9 9 9 9 9 9 9 9 9 9 9 9 9 9 9 9 9 9 9 9 9 9 9 9 9 9 9 9 9 9 9 9 9 9 9 9 9 9 9 9 9 9 9 9 9 9 9 9 9 9 9 9 9 9 9 9 9 9 9 9 9 9 9 9 9 9 9 9 9 9 9 9 9 9 9 9 9 9 9 9 9 9 9 9 9 9 9 9 9 9 9 9 9 9 9 9 9 9 9 9 9 9 9 9 9 9 9 9 9 9 9 9 9 9 9 9 9 9 9 9 9 9 9 9 9 9 9 9 9 9 9 9 9 9 9 9 9 9 9 9 9 9 9 9 9 9 9 9 9 9 9 9 9 9 9 9 9 9 9 9 9 9 9 9 9 9 9 9 9 9 9 9 9 9 9 9 9 9 9 9 9 9 9 9 9 9 9 9 9 9 9 9 9 9 9 9 9 9 9 9 9 9 9 9 9 9 9 9 9 9 9 9 9 9 9 9 9 9 9 9 9 9 9 9 9 9 9 9 9 9 9 9 9 9 9 9 9 9 9 9 9 9 9 9 9 9 9 9 9 9 9 9 9 9 9 9 9 9 9 9 9 9 9 9 9 9 9 9 9 9 9 9 9 9 9 9 9 9 9 9 9 9 9 9 9 9 9 9 9 9 9 9 9 9 9 9 9 9 9 9 9 9 9 9 9 9 9 9 9 9 9 9 9 9 9 9 9 9 9 9 9 9 9 9 9 9 9 9 9 9 9 9 9 9 9 9 9 9 9 9 9 9 9 9 9 9 9 9 9 9 9 9 9 9 9 9 9 9 9 9 9 9 9 9 9 9 9 9 9 9 9 9 9 9 9 9 9 9 9 9 9 9 9 9 9 9 9 9 9 9 9 9 9 9 9 9 9 9 9 9 9 9 9 9 9 9 9 9 9 9 9 9 9 9 9 9 9 9 9 9 



CELL_DATA 512
SCALARS MaterialID int 1
LOOKUP_TABLE default
0 0 0 0 0 0 0 0 0 0 0 0 0 0 0 0 0 0 0 0 0 0 0 0 0 0 0 0 0 0 0 0 0 0 0 0 0 0 0 0 0 0 0 0 0 0 0 0 0 0 0 0 0 0 0 0 0 0 0 0 0 0 0 0 0 0 0 0 0 0 0 0 0 0 0 0 0 0 0 0 0 0 0 0 0 0 0 0 0 0 0 0 0 0 0 0 0 0 0 0 0 0 0 0 0 0 0 0 0 0 0 0 0 0 0 0 0 0 0 0 0 0 0 0 0 0 0 0 0 0 0 0 0 0 0 0 0 0 0 0 0 0 0 0 0 0 0 0 0 0 0 0 0 0 0 0 0 0 0 0 0 0 0 0 0 0 0 0 0 0 0 0 0 0 0 0 0 0 0 0 0 0 0 0 0 0 0 0 0 0 0 0 0 0 0 0 0 0 0 0 0 0 0 0 0 0 0 0 0 0 0 0 0 0 0 0 0 0 0 0 0 0 0 0 0 0 0 0 0 0 0 0 0 0 0 0 0 0 0 0 0 0 0 0 0 0 0 0 0 0 0 0 0 0 0 0 0 0 0 0 0 0 0 0 0 0 0 0 0 0 0 0 0 0 0 0 0 0 0 0 0 0 0 0 0 0 0 0 0 0 0 0 0 0 0 0 0 0 0 0 0 0 0 0 0 0 0 0 0 0 0 0 0 0 0 0 0 0 0 0 0 0 0 0 0 0 0 0 0 0 0 0 0 0 0 0 0 0 0 0 0 0 0 0 0 0 0 0 0 0 0 0 0 0 0 0 0 0 0 0 0 0 0 0 0 0 0 0 0 0 0 0 0 0 0 0 0 0 0 0 0 0 0 0 0 0 0 0 0 0 0 0 0 0 0 0 0 0 0 0 0 0 0 0 0 0 0 0 0 0 0 0 0 0 0 0 0 0 0 0 0 0 0 0 0 0 0 0 0 0 0 0 0 0 0 0 0 0 0 0 0 0 0 0 0 0 0 0 0 0 0 0 0 0 0 0 0 0 0 0 0 0 0 0 0 0 0 0 0 0 0 0 0 0 0 0 0 0 0 0 0 0 0 0 0 0 0 0 0 0 0 0 0 0 0 0 0 0 0 0 0 0 0 0 0 0 0 0 0 0 0 0 



SCALARS ManifoldID int 1
LOOKUP_TABLE default
-1 -1 -1 -1 -1 -1 -1 -1 -1 -1 -1 -1 -1 -1 -1 -1 -1 -1 -1 -1 -1 -1 -1 -1 -1 -1 -1 -1 -1 -1 -1 -1 -1 -1 -1 -1 -1 -1 -1 -1 -1 -1 -1 -1 -1 -1 -1 -1 -1 -1 -1 -1 -1 -1 -1 -1 -1 -1 -1 -1 -1 -1 -1 -1 -1 -1 -1 -1 -1 -1 -1 -1 -1 -1 -1 -1 -1 -1 -1 -1 -1 -1 -1 -1 -1 -1 -1 -1 -1 -1 -1 -1 -1 -1 -1 -1 -1 -1 -1 -1 -1 -1 -1 -1 -1 -1 -1 -1 -1 -1 -1 -1 -1 -1 -1 -1 -1 -1 -1 -1 -1 -1 -1 -1 -1 -1 -1 -1 -1 -1 -1 -1 -1 -1 -1 -1 -1 -1 -1 -1 -1 -1 -1 -1 -1 -1 -1 -1 -1 -1 -1 -1 -1 -1 -1 -1 -1 -1 -1 -1 -1 -1 -1 -1 -1 -1 -1 -1 -1 -1 -1 -1 -1 -1 -1 -1 -1 -1 -1 -1 -1 -1 -1 -1 -1 -1 -1 -1 -1 -1 -1 -1 -1 -1 -1 -1 -1 -1 -1 -1 -1 -1 -1 -1 -1 -1 -1 -1 -1 -1 -1 -1 -1 -1 -1 -1 -1 -1 -1 -1 -1 -1 -1 -1 -1 -1 -1 -1 -1 -1 -1 -1 -1 -1 -1 -1 -1 -1 -1 -1 -1 -1 -1 -1 -1 -1 -1 -1 -1 -1 -1 -1 -1 -1 -1 -1 -1 -1 -1 -1 -1 -1 -1 -1 -1 -1 -1 -1 -1 -1 -1 -1 -1 -1 -1 -1 -1 -1 -1 -1 -1 -1 -1 -1 -1 -1 -1 -1 -1 -1 -1 -1 -1 -1 -1 -1 -1 -1 -1 -1 -1 -1 -1 -1 -1 -1 -1 -1 -1 -1 -1 -1 -1 -1 -1 -1 -1 -1 -1 -1 -1 -1 -1 -1 -1 -1 -1 -1 -1 -1 -1 -1 -1 -1 -1 -1 -1 -1 -1 -1 -1 -1 -1 -1 -1 -1 -1 -1 -1 -1 -1 -1 -1 -1 -1 -1 -1 -1 -1 -1 -1 -1 -1 -1 -1 -1 -1 -1 -1 -1 -1 -1 -1 -1 -1 -1 -1 -1 -1 -1 -1 -1 -1 -1 -1 -1 -1 -1 -1 -1 -1 -1 -1 -1 -1 -1 -1 -1 -1 -1 -1 -1 -1 -1 -1 -1 -1 -1 -1 -1 -1 -1 -1 -1 -1 -1 -1 -1 -1 -1 -1 -1 -1 -1 -1 -1 -1 -1 -1 -1 -1 -1 -1 -1 -1 -1 -1 -1 -1 -1 -1 -1 -1 -1 -1 -1 -1 -1 -1 -1 -1 -1 -1 -1 -1 -1 -1 -1 -1 -1 -1 -1 -1 -1 -1 -1 -1 -1 -1 -1 -1 -1 -1 -1 -1 -1 -1 -1 -1 -1 -1 -1 -1 -1 -1 -1 -1 -1 -1 -1 -1 -1 -1 -1 -1 -1 -1 -1 -1 -1 -1 -1 -1 -1 -1 -1 -1 -1 -1 -1 -1 -1 


